0.000000e+00	5.522217e-01	5.522217e-01	0.000000e+00	0.000000e+00	4.964610e-02	
1.000000e+01	2.111046e+02	2.111046e+02	0.000000e+00	2.800000e+01	4.091352e+00	
2.000000e+01	3.298261e+02	3.298261e+02	0.000000e+00	4.500000e+01	8.150373e+00	
3.000000e+01	3.882183e+02	3.882183e+02	0.000000e+00	5.400000e+01	1.220961e+01	
4.000000e+01	5.432490e+02	5.432490e+02	0.000000e+00	7.500000e+01	1.629352e+01	
5.000000e+01	6.009209e+02	6.009209e+02	0.000000e+00	8.500000e+01	2.034501e+01	
