0.000000e+00	2.688756e+02	2.677711e+02	1.104443e+00	0.000000e+00	2.949140e-02	-7.166674e-01	-6.970617e-01	-8.436429e-01	1.042632e-02	-6.676976e-02	7.543694e-03	-6.433787e-02	4.341217e-02	-4.821843e-02	4.195418e-03	-1.930385e-02	9.571359e-03	-6.523295e-01	-7.404738e-01	-7.954245e-01	6.230901e-03	-4.746591e-02	-2.027665e-03	0.000000e+00	0.000000e+00	0.000000e+00	0.000000e+00	0.000000e+00	0.000000e+00	0.000000e+00	
1.000000e-01	2.687746e+02	2.677711e+02	1.003527e+00	0.000000e+00	5.863038e-02	-5.427924e-01	-8.571353e-01	-6.759609e-01	-6.429464e-02	-1.217001e-02	-3.824547e-02	-4.552836e-03	-1.273443e-01	-8.661266e-03	-3.101073e-02	1.133596e-02	1.154951e-02	-5.382396e-01	-7.297910e-01	-6.672997e-01	-3.328392e-02	-2.350597e-02	-4.979498e-02	0.000000e+00	0.000000e+00	0.000000e+00	0.000000e+00	0.000000e+00	0.000000e+00	0.000000e+00	
2.000000e-01	2.688678e+02	2.677711e+02	1.096662e+00	0.000000e+00	8.303814e-02	-7.967608e-01	-6.873759e-01	-8.351821e-01	-6.082873e-02	8.953497e-02	-9.621034e-02	-1.391160e-01	6.178625e-04	-9.705007e-03	-9.270841e-03	-2.175784e-03	-1.080230e-01	-6.576447e-01	-6.879938e-01	-8.254771e-01	-5.155788e-02	9.171076e-02	1.181267e-02	0.000000e+00	0.000000e+00	0.000000e+00	0.000000e+00	0.000000e+00	0.000000e+00	0.000000e+00	
3.000000e-01	2.687338e+02	2.677711e+02	9.627164e-01	0.000000e+00	1.073059e-01	-5.854207e-01	-7.769854e-01	-7.022395e-01	-8.732633e-02	5.594907e-02	-9.371371e-03	5.131709e-02	-1.013029e-01	5.173112e-02	-4.780806e-02	-1.603431e-02	-2.409324e-02	-6.367378e-01	-6.756825e-01	-7.539706e-01	-3.951827e-02	7.198339e-02	1.472187e-02	0.000000e+00	0.000000e+00	0.000000e+00	0.000000e+00	0.000000e+00	0.000000e+00	0.000000e+00	
4.000000e-01	2.691539e+02	2.677711e+02	1.382754e+00	0.000000e+00	1.315360e-01	-7.083830e-01	-7.901455e-01	-7.930257e-01	-1.035811e-01	8.738837e-02	-1.235557e-02	2.003469e-01	2.926820e-02	5.098836e-02	6.636628e-03	3.607864e-02	3.264847e-02	-9.087299e-01	-8.194137e-01	-8.440141e-01	-1.102177e-01	5.130973e-02	-4.500405e-02	0.000000e+00	0.000000e+00	0.000000e+00	0.000000e+00	0.000000e+00	0.000000e+00	0.000000e+00	
5.000000e-01	2.690426e+02	2.677711e+02	1.271519e+00	0.000000e+00	1.558206e-01	-9.521500e-01	-7.107037e-01	-7.470472e-01	-1.533127e-02	9.821693e-02	-2.875336e-02	-5.813567e-02	5.408383e-02	1.694308e-02	9.064457e-02	1.681207e-02	7.187336e-03	-8.940144e-01	-7.647875e-01	-7.639903e-01	-1.059758e-01	8.140486e-02	-3.594069e-02	0.000000e+00	0.000000e+00	0.000000e+00	0.000000e+00	0.000000e+00	0.000000e+00	0.000000e+00	
6.000000e-01	2.689437e+02	2.677711e+02	1.172586e+00	0.000000e+00	1.800680e-01	-9.124878e-01	-7.372074e-01	-8.869998e-01	-1.149099e-01	1.016301e-02	3.172617e-02	-2.207472e-02	2.587476e-02	-6.426959e-03	-5.373255e-03	-1.384528e-02	7.426163e-02	-8.904131e-01	-7.630822e-01	-8.805729e-01	-1.095366e-01	2.400830e-02	-4.253546e-02	0.000000e+00	0.000000e+00	0.000000e+00	0.000000e+00	0.000000e+00	0.000000e+00	0.000000e+00	
7.000000e-01	2.689751e+02	2.677711e+02	1.204006e+00	0.000000e+00	2.043663e-01	-8.936271e-01	-7.431751e-01	-6.042237e-01	-7.062371e-02	1.197407e-01	5.749740e-02	-3.940121e-02	6.387934e-02	1.708334e-01	3.610979e-02	1.402603e-01	9.613607e-02	-8.542258e-01	-8.070544e-01	-7.750571e-01	-1.067335e-01	-2.051960e-02	-3.863867e-02	0.000000e+00	0.000000e+00	0.000000e+00	0.000000e+00	0.000000e+00	0.000000e+00	0.000000e+00	
8.000000e-01	2.689442e+02	2.677711e+02	1.173083e+00	0.000000e+00	2.285122e-01	-9.610832e-01	-7.746446e-01	-7.754179e-01	-4.202636e-03	5.685484e-02	-1.214961e-01	-6.600476e-02	-1.856437e-03	-1.764120e-02	1.686206e-02	-2.350522e-02	-1.492753e-01	-8.950785e-01	-7.727882e-01	-7.577767e-01	-2.106470e-02	8.036006e-02	2.777914e-02	0.000000e+00	0.000000e+00	0.000000e+00	0.000000e+00	0.000000e+00	0.000000e+00	0.000000e+00	
9.000000e-01	2.689637e+02	2.677711e+02	1.192583e+00	0.000000e+00	2.535021e-01	-9.475837e-01	-8.232899e-01	-7.662276e-01	-3.608849e-02	9.433906e-02	1.286748e-01	-1.065822e-01	-8.113414e-03	-2.476290e-02	6.556266e-03	3.338230e-02	9.357681e-02	-8.410015e-01	-8.151765e-01	-7.414647e-01	-4.264476e-02	6.095676e-02	3.509802e-02	0.000000e+00	0.000000e+00	0.000000e+00	0.000000e+00	0.000000e+00	0.000000e+00	0.000000e+00	
1.000000e+00	2.691566e+02	2.677711e+02	1.385451e+00	0.000000e+00	2.793232e-01	-8.869561e-01	-8.286392e-01	-8.631080e-01	-6.816983e-02	-1.209648e-02	2.881974e-02	4.381740e-02	2.394695e-02	-2.763649e-02	1.319560e-02	-2.696481e-02	3.965940e-02	-9.307735e-01	-8.525861e-01	-8.354715e-01	-8.136542e-02	1.486833e-02	-1.083966e-02	0.000000e+00	0.000000e+00	0.000000e+00	0.000000e+00	0.000000e+00	0.000000e+00	0.000000e+00	
1.100000e+00	2.691641e+02	2.677711e+02	1.392952e+00	0.000000e+00	3.037511e-01	-8.619273e-01	-1.131687e+00	-6.491108e-01	-1.241658e-01	6.977739e-02	1.277813e-01	-6.667622e-02	-1.348396e-01	1.603421e-01	-1.163301e-01	9.570553e-02	1.635689e-01	-7.952511e-01	-9.968477e-01	-8.094528e-01	-7.835765e-03	-2.592814e-02	-3.578760e-02	0.000000e+00	0.000000e+00	0.000000e+00	0.000000e+00	0.000000e+00	0.000000e+00	0.000000e+00	
1.200000e+00	2.691365e+02	2.677711e+02	1.365394e+00	0.000000e+00	3.281316e-01	-7.346120e-01	-8.813583e-01	-7.677530e-01	-8.596644e-02	-6.735239e-02	-1.587293e-01	1.164562e-01	-6.944547e-02	-4.724373e-04	-7.956459e-02	-6.477965e-02	-9.178625e-02	-8.510683e-01	-8.119128e-01	-7.672806e-01	-6.401856e-03	-2.572746e-03	-6.694301e-02	0.000000e+00	0.000000e+00	0.000000e+00	0.000000e+00	0.000000e+00	0.000000e+00	0.000000e+00	
1.300000e+00	2.691310e+02	2.677711e+02	1.359873e+00	0.000000e+00	3.523621e-01	-7.274333e-01	-9.579469e-01	-8.090891e-01	-7.999266e-02	1.837365e-02	-6.836669e-04	1.433089e-01	-5.752912e-02	-8.902771e-03	-3.180226e-02	3.422405e-02	-3.858823e-02	-8.707421e-01	-9.004178e-01	-8.001863e-01	-4.819040e-02	-1.585041e-02	3.790456e-02	0.000000e+00	0.000000e+00	0.000000e+00	0.000000e+00	0.000000e+00	0.000000e+00	0.000000e+00	
1.400000e+00	2.691447e+02	2.677711e+02	1.373574e+00	0.000000e+00	3.766653e-01	-9.751160e-01	-8.343477e-01	-8.455913e-01	-1.685596e-02	-4.961875e-02	-1.015651e-02	-5.053918e-02	-8.335542e-02	-1.142248e-01	-2.823311e-02	-9.907490e-02	-1.738101e-02	-9.245768e-01	-7.509923e-01	-7.313665e-01	1.137715e-02	4.945615e-02	7.224502e-03	0.000000e+00	0.000000e+00	0.000000e+00	0.000000e+00	0.000000e+00	0.000000e+00	0.000000e+00	
1.500000e+00	2.692527e+02	2.677711e+02	1.481586e+00	0.000000e+00	4.009504e-01	-7.787503e-01	-7.895211e-01	-8.742470e-01	-1.162021e-02	4.095223e-02	1.139225e-01	1.089095e-01	-1.808010e-02	2.405306e-02	-3.613478e-02	1.150370e-03	7.617307e-03	-8.876598e-01	-7.714410e-01	-8.983000e-01	2.451458e-02	3.980186e-02	1.063052e-01	0.000000e+00	0.000000e+00	0.000000e+00	0.000000e+00	0.000000e+00	0.000000e+00	0.000000e+00	
1.600000e+00	2.690089e+02	2.677711e+02	1.237788e+00	0.000000e+00	4.255035e-01	-7.475690e-01	-6.904651e-01	-9.205030e-01	-7.892807e-03	5.739672e-03	-9.718243e-03	6.343246e-02	3.143352e-02	-3.797937e-02	-3.330052e-02	-1.330526e-02	-1.196540e-01	-8.110014e-01	-7.218986e-01	-8.825236e-01	2.540771e-02	1.904494e-02	1.099358e-01	0.000000e+00	0.000000e+00	0.000000e+00	0.000000e+00	0.000000e+00	0.000000e+00	0.000000e+00	
1.700000e+00	2.687040e+02	2.677711e+02	9.329186e-01	0.000000e+00	4.498390e-01	-5.444208e-01	-6.747882e-01	-7.063145e-01	-2.486872e-02	-5.221060e-02	6.336477e-02	1.345835e-01	4.834119e-03	3.906278e-02	2.088866e-02	-7.560381e-02	-4.111683e-02	-6.790043e-01	-6.796223e-01	-7.453773e-01	-4.575738e-02	2.339321e-02	1.044816e-01	0.000000e+00	0.000000e+00	0.000000e+00	0.000000e+00	0.000000e+00	0.000000e+00	0.000000e+00	
1.800000e+00	2.688022e+02	2.677711e+02	1.031060e+00	0.000000e+00	4.741870e-01	-9.151053e-01	-7.095095e-01	-8.087136e-01	-1.086641e-01	4.504845e-02	1.246339e-01	-1.202343e-01	-3.716676e-02	-3.017771e-02	-1.339114e-01	3.811523e-02	6.010480e-02	-7.948710e-01	-6.723427e-01	-7.785358e-01	2.524724e-02	6.933223e-03	6.452909e-02	0.000000e+00	0.000000e+00	0.000000e+00	0.000000e+00	0.000000e+00	0.000000e+00	0.000000e+00	
1.900000e+00	2.691898e+02	2.677711e+02	1.418693e+00	0.000000e+00	4.985817e-01	-7.711512e-01	-8.220920e-01	-7.225285e-01	1.828065e-02	1.015799e-01	1.382104e-01	6.205807e-02	4.978024e-03	1.698049e-01	5.142905e-02	1.055740e-01	5.049022e-02	-8.332093e-01	-8.270700e-01	-8.923334e-01	-3.314840e-02	-3.994118e-03	8.772019e-02	0.000000e+00	0.000000e+00	0.000000e+00	0.000000e+00	0.000000e+00	0.000000e+00	0.000000e+00	
2.000000e+00	2.690282e+02	2.677711e+02	1.257092e+00	0.000000e+00	5.230436e-01	-8.828138e-01	-8.244393e-01	-7.930043e-01	-8.384209e-02	1.801115e-01	1.935011e-01	3.347552e-03	-5.399789e-02	5.681291e-02	-5.745026e-02	1.566808e-01	1.306606e-01	-8.861614e-01	-7.704414e-01	-8.498172e-01	-2.639183e-02	2.343064e-02	6.284055e-02	0.000000e+00	0.000000e+00	0.000000e+00	0.000000e+00	0.000000e+00	0.000000e+00	0.000000e+00	
2.100000e+00	2.691638e+02	2.677711e+02	1.392695e+00	0.000000e+00	5.472356e-01	-9.174436e-01	-7.127254e-01	-8.420057e-01	3.100767e-02	6.452239e-02	-7.460747e-03	4.611556e-02	1.159362e-01	1.631770e-02	9.701325e-02	4.861303e-02	-8.095251e-02	-9.635592e-01	-8.286616e-01	-8.583234e-01	-6.600557e-02	1.590936e-02	7.349176e-02	0.000000e+00	0.000000e+00	0.000000e+00	0.000000e+00	0.000000e+00	0.000000e+00	0.000000e+00	
2.200000e+00	2.691149e+02	2.677711e+02	1.343837e+00	0.000000e+00	5.714431e-01	-8.994880e-01	-8.456416e-01	-8.279051e-01	-1.242663e-01	2.122939e-02	-5.784768e-03	5.994408e-02	-3.205807e-02	7.643654e-02	-1.079359e-01	2.193575e-03	2.759399e-02	-9.594320e-01	-8.135836e-01	-9.043416e-01	-1.633032e-02	1.903582e-02	-3.337876e-02	0.000000e+00	0.000000e+00	0.000000e+00	0.000000e+00	0.000000e+00	0.000000e+00	0.000000e+00	
2.300000e+00	2.691647e+02	2.677711e+02	1.393607e+00	0.000000e+00	5.957508e-01	-8.916952e-01	-9.237750e-01	-9.015152e-01	-2.099747e-01	-3.779553e-02	6.355578e-03	4.919877e-02	-3.375770e-02	-7.157351e-02	-7.718257e-02	-5.442144e-02	-3.867817e-02	-9.408940e-01	-8.900173e-01	-8.299417e-01	-1.327921e-01	1.662591e-02	4.503374e-02	0.000000e+00	0.000000e+00	0.000000e+00	0.000000e+00	0.000000e+00	0.000000e+00	0.000000e+00	
2.400000e+00	2.693731e+02	2.677711e+02	1.602037e+00	0.000000e+00	6.201510e-01	-1.258452e+00	-9.213689e-01	-7.331232e-01	-8.153249e-02	3.161024e-02	1.136913e-02	-1.400949e-01	6.331779e-02	1.315128e-01	-3.548250e-02	8.601036e-02	6.875624e-02	-1.118357e+00	-9.846867e-01	-8.646360e-01	-4.604999e-02	-5.440011e-02	-5.738711e-02	0.000000e+00	0.000000e+00	0.000000e+00	0.000000e+00	0.000000e+00	0.000000e+00	0.000000e+00	
2.500000e+00	2.692283e+02	2.677711e+02	1.457185e+00	0.000000e+00	6.446368e-01	-1.085387e+00	-8.246284e-01	-7.780336e-01	9.003796e-02	-8.717118e-02	6.777275e-02	5.061062e-03	9.076036e-02	2.169306e-02	1.242924e-01	2.038103e-02	7.893092e-02	-1.090448e+00	-9.153888e-01	-7.997266e-01	-3.425440e-02	-1.075522e-01	-1.115817e-02	0.000000e+00	0.000000e+00	0.000000e+00	0.000000e+00	0.000000e+00	0.000000e+00	0.000000e+00	
2.600000e+00	2.694720e+02	2.677711e+02	1.700887e+00	0.000000e+00	6.689498e-01	-1.234381e+00	-8.880805e-01	-9.216435e-01	6.520146e-02	-1.720529e-01	-5.717379e-03	-5.454968e-02	3.002868e-02	-4.903781e-02	4.632118e-02	-8.679759e-02	-2.584875e-02	-1.179831e+00	-9.181092e-01	-8.726057e-01	1.888028e-02	-8.525535e-02	2.013137e-02	0.000000e+00	0.000000e+00	0.000000e+00	0.000000e+00	0.000000e+00	0.000000e+00	0.000000e+00	
2.700000e+00	2.694221e+02	2.677711e+02	1.651003e+00	0.000000e+00	6.933515e-01	-1.341154e+00	-8.084828e-01	-8.227353e-01	1.344702e-02	-8.752237e-03	6.942186e-02	-1.602246e-01	9.699945e-02	8.919477e-02	4.739552e-02	1.113956e-01	8.453222e-02	-1.180930e+00	-9.054823e-01	-9.119301e-01	-3.394850e-02	-1.201478e-01	-1.511036e-02	0.000000e+00	0.000000e+00	0.000000e+00	0.000000e+00	0.000000e+00	0.000000e+00	0.000000e+00	
2.800000e+00	2.689733e+02	2.677711e+02	1.202215e+00	0.000000e+00	7.176066e-01	-1.007549e+00	-6.957079e-01	-8.297270e-01	1.132372e-01	-9.095212e-02	1.064757e-01	5.120232e-03	1.006984e-01	-2.538217e-02	1.087965e-01	2.501460e-02	7.556351e-02	-1.012670e+00	-7.964063e-01	-8.043448e-01	4.440632e-03	-1.159667e-01	3.091221e-02	0.000000e+00	0.000000e+00	0.000000e+00	0.000000e+00	0.000000e+00	0.000000e+00	0.000000e+00	
2.900000e+00	2.690994e+02	2.677711e+02	1.328297e+00	0.000000e+00	7.419420e-01	-7.818347e-01	-8.644907e-01	-8.799001e-01	-9.072133e-02	-1.300967e-01	-1.688352e-01	1.211359e-01	-1.603477e-02	-6.123858e-02	-4.640318e-02	-9.474032e-02	-1.276615e-01	-9.029706e-01	-8.484559e-01	-8.186616e-01	-4.431815e-02	-3.535639e-02	-4.117375e-02	0.000000e+00	0.000000e+00	0.000000e+00	0.000000e+00	0.000000e+00	0.000000e+00	0.000000e+00	
3.000000e+00	2.690266e+02	2.677711e+02	1.255498e+00	0.000000e+00	7.662585e-01	-9.835562e-01	-8.332813e-01	-8.815343e-01	-7.300830e-02	-9.852069e-02	6.965763e-02	-8.172500e-02	-3.789532e-02	-1.286024e-02	-5.092077e-02	-5.241603e-02	4.685954e-02	-9.018312e-01	-7.953860e-01	-8.686740e-01	-2.208753e-02	-4.610466e-02	2.279809e-02	0.000000e+00	0.000000e+00	0.000000e+00	0.000000e+00	0.000000e+00	0.000000e+00	0.000000e+00	
3.100000e+00	2.691531e+02	2.677711e+02	1.381995e+00	0.000000e+00	7.905364e-01	-1.013410e+00	-8.918209e-01	-7.919497e-01	5.176033e-02	-2.085939e-02	8.690076e-02	-6.835904e-02	-3.030321e-02	3.274871e-02	5.502887e-02	6.344646e-02	1.542083e-02	-9.450512e-01	-8.615177e-01	-8.246984e-01	-3.268544e-03	-8.430584e-02	7.147994e-02	0.000000e+00	0.000000e+00	0.000000e+00	0.000000e+00	0.000000e+00	0.000000e+00	0.000000e+00	
3.200000e+00	2.689206e+02	2.677711e+02	1.149485e+00	0.000000e+00	8.147614e-01	-8.077297e-01	-7.766648e-01	-7.615781e-01	-1.116959e-01	8.220099e-02	2.023239e-01	7.868086e-02	-4.208354e-02	3.309213e-02	-9.819528e-02	1.035406e-01	1.194247e-01	-8.864106e-01	-7.345813e-01	-7.946702e-01	-1.350065e-02	-2.133963e-02	8.289920e-02	0.000000e+00	0.000000e+00	0.000000e+00	0.000000e+00	0.000000e+00	0.000000e+00	0.000000e+00	
3.300000e+00	2.690982e+02	2.677711e+02	1.327076e+00	0.000000e+00	8.391884e-01	-9.902935e-01	-7.570954e-01	-8.094668e-01	3.713684e-02	6.187827e-02	1.138219e-01	-2.680948e-02	2.004289e-01	1.436656e-02	8.997592e-02	1.597683e-02	-9.671296e-03	-9.634840e-01	-9.575243e-01	-8.238333e-01	-5.283909e-02	4.590144e-02	1.234932e-01	0.000000e+00	0.000000e+00	0.000000e+00	0.000000e+00	0.000000e+00	0.000000e+00	0.000000e+00	
3.400000e+00	2.689738e+02	2.677711e+02	1.202705e+00	0.000000e+00	8.634662e-01	-1.028990e+00	-8.999700e-01	-8.748115e-01	-1.044569e-01	1.866139e-02	-7.912052e-03	-6.669629e-02	-3.878513e-02	-5.110971e-02	-6.531557e-02	-3.884898e-02	-1.092946e-01	-9.622939e-01	-8.611849e-01	-8.237018e-01	-3.914128e-02	5.751036e-02	1.013826e-01	0.000000e+00	0.000000e+00	0.000000e+00	0.000000e+00	0.000000e+00	0.000000e+00	0.000000e+00	
3.500000e+00	2.687412e+02	2.677711e+02	9.700530e-01	0.000000e+00	8.880325e-01	-7.807962e-01	-6.600878e-01	-7.088459e-01	8.095100e-02	-1.739063e-03	-8.046576e-03	7.194082e-02	1.300459e-01	-2.464184e-02	9.702350e-02	-5.112562e-02	-5.888993e-02	-8.527370e-01	-7.901337e-01	-6.842041e-01	-1.607249e-02	4.938656e-02	5.084336e-02	0.000000e+00	0.000000e+00	0.000000e+00	0.000000e+00	0.000000e+00	0.000000e+00	0.000000e+00	
3.600000e+00	2.688500e+02	2.677711e+02	1.078922e+00	0.000000e+00	9.125298e-01	-8.380548e-01	-5.976043e-01	-7.623566e-01	1.240385e-02	1.087743e-01	1.062953e-03	5.230940e-02	9.750632e-02	3.498159e-02	-2.322615e-02	-1.368468e-02	-5.273402e-02	-8.903642e-01	-6.951106e-01	-7.973382e-01	3.563000e-02	1.224590e-01	5.379697e-02	0.000000e+00	0.000000e+00	0.000000e+00	0.000000e+00	0.000000e+00	0.000000e+00	0.000000e+00	
3.700000e+00	2.688784e+02	2.677711e+02	1.107320e+00	0.000000e+00	9.369037e-01	-7.915642e-01	-7.405526e-01	-9.513447e-01	2.477886e-02	1.542261e-01	8.277592e-02	7.735141e-02	4.597764e-02	-8.955899e-02	1.080146e-01	4.600746e-02	1.735866e-03	-8.689156e-01	-7.865302e-01	-8.617857e-01	-8.323579e-02	1.082186e-01	8.104005e-02	0.000000e+00	0.000000e+00	0.000000e+00	0.000000e+00	0.000000e+00	0.000000e+00	0.000000e+00	
3.800000e+00	2.688167e+02	2.677711e+02	1.045568e+00	0.000000e+00	9.640625e-01	-7.323439e-01	-7.957659e-01	-9.007739e-01	-1.482219e-01	-3.032686e-02	3.784713e-02	-1.963545e-02	-6.008944e-02	-1.172146e-01	-4.465035e-02	-7.211501e-02	-5.066619e-02	-7.127084e-01	-7.356765e-01	-7.835593e-01	-1.035716e-01	4.178815e-02	8.851332e-02	0.000000e+00	0.000000e+00	0.000000e+00	0.000000e+00	0.000000e+00	0.000000e+00	0.000000e+00	
3.900000e+00	2.688007e+02	2.677711e+02	1.029566e+00	0.000000e+00	9.901450e-01	-7.326738e-01	-8.441862e-01	-7.839355e-01	1.949179e-02	1.507287e-01	2.135371e-01	1.785703e-02	-6.685400e-02	4.046202e-03	7.168620e-02	1.052276e-01	6.909236e-02	-7.505308e-01	-7.773322e-01	-7.879817e-01	-5.219442e-02	4.550107e-02	1.444447e-01	0.000000e+00	0.000000e+00	0.000000e+00	0.000000e+00	0.000000e+00	0.000000e+00	0.000000e+00	
4.000000e+00	2.752815e+02	2.677711e+02	7.510421e+00	1.000000e+00	1.014595e+00	-7.714658e-01	-9.199069e-01	-6.177421e-01	-4.992842e-03	3.056559e-01	2.967443e-01	-4.981634e-02	-6.835118e-02	1.801440e-01	1.802111e-02	2.192779e-01	1.913163e-01	-7.318334e-01	-8.529744e-01	-7.990129e-01	-1.921292e-02	8.976545e-02	1.041637e-01	1.018399e-02	1.418679e-03	1.126769e-03	-3.801028e-03	-3.387477e-03	1.264327e-03	1.000000e+00	
4.100000e+00	2.762913e+02	2.677711e+02	8.520186e+00	1.000000e+00	1.039218e+00	-6.424410e-01	-6.231569e-01	-8.846667e-01	1.918486e-01	9.056117e-03	1.556023e-01	7.336720e-02	9.895645e-02	-9.860604e-03	1.912073e-01	-7.382734e-02	8.292558e-02	-7.280256e-01	-7.234678e-01	-8.758537e-01	4.709130e-03	8.646111e-02	7.148548e-02	1.221743e-02	1.354428e-03	1.047655e-03	-4.067877e-03	-3.577660e-03	1.191206e-03	1.000000e+00	
4.200000e+00	2.755665e+02	2.677711e+02	7.795417e+00	1.000000e+00	1.065919e+00	-8.174023e-01	-7.340710e-01	-8.500760e-01	2.080174e-02	1.360978e-01	7.302526e-02	-5.858425e-02	1.277408e-02	4.077099e-02	1.957102e-02	4.098115e-02	4.992582e-02	-7.703360e-01	-7.476049e-01	-8.917077e-01	4.189110e-03	9.826528e-02	2.229072e-02	1.151800e-02	7.598611e-04	8.607280e-04	-2.958392e-03	-3.148630e-03	8.087236e-04	1.000000e+00	
4.300000e+00	2.757676e+02	2.677711e+02	7.996521e+00	1.000000e+00	1.090128e+00	-6.959981e-01	-6.498248e-01	-9.181276e-01	-1.022628e-02	9.139413e-02	-5.285610e-02	1.284628e-01	1.970759e-02	-6.761042e-02	-5.480362e-02	-3.536174e-02	-1.214199e-01	-8.361426e-01	-6.705371e-01	-8.515094e-01	4.800318e-02	1.301604e-01	6.756536e-02	1.168175e-02	1.004673e-03	9.921973e-04	-3.425835e-03	-3.404498e-03	9.984158e-04	1.000000e+00	
4.400000e+00	2.753732e+02	2.677711e+02	7.602077e+00	1.000000e+00	1.114310e+00	-8.457859e-01	-7.445820e-01	-7.880829e-01	-7.527822e-02	1.231987e-01	2.022585e-01	-7.389090e-02	-7.065737e-02	7.453376e-02	-7.567464e-02	4.992261e-02	1.204161e-01	-7.831854e-01	-6.750569e-01	-8.631421e-01	3.971915e-03	7.571172e-02	8.107107e-02	1.129040e-02	1.132306e-03	5.254146e-04	-3.575498e-03	-2.435598e-03	7.713171e-04	1.000000e+00	
4.500000e+00	2.761119e+02	2.677711e+02	8.340831e+00	1.000000e+00	1.138592e+00	-8.503974e-01	-6.629241e-01	-7.662823e-01	1.379070e-02	8.789256e-02	6.357821e-02	-1.603211e-02	6.081338e-02	9.656892e-02	-2.817615e-02	8.370113e-02	5.045670e-02	-8.471745e-01	-7.248963e-01	-8.632885e-01	4.581950e-02	6.557993e-03	1.240972e-02	1.280927e-02	1.158767e-03	4.372300e-04	-3.852657e-03	-2.366558e-03	7.117919e-04	1.000000e+00	
4.600000e+00	2.774182e+02	2.677711e+02	9.647070e+00	1.000000e+00	1.162951e+00	-9.488183e-01	-7.714089e-01	-7.728961e-01	4.881884e-02	1.347015e-01	1.376146e-01	-3.639574e-02	-5.414343e-02	1.203726e-01	-4.106290e-02	1.003176e-01	1.005280e-01	-9.280137e-01	-7.179498e-01	-8.936448e-01	9.314813e-02	3.680556e-02	3.657926e-02	1.559108e-02	6.843205e-04	3.761424e-04	-3.266389e-03	-2.421666e-03	5.073479e-04	1.000000e+00	
4.700000e+00	2.769048e+02	2.677711e+02	9.133659e+00	1.000000e+00	1.187247e+00	-7.131852e-01	-5.788912e-01	-6.613526e-01	1.114219e-01	5.684709e-02	3.166054e-02	3.531366e-02	9.022693e-02	7.518584e-02	1.017495e-01	7.823000e-03	1.643940e-02	-7.638605e-01	-6.694422e-01	-7.372996e-01	1.190362e-02	5.244367e-02	1.472447e-02	1.536161e-02	3.240681e-04	7.612188e-04	-2.231190e-03	-3.419582e-03	4.966757e-04	1.000000e+00	
4.800000e+00	2.768829e+02	2.677711e+02	9.111766e+00	1.000000e+00	1.211590e+00	-6.747011e-01	-7.659538e-01	-9.502697e-01	-1.314397e-02	-6.042070e-02	2.888192e-02	1.976209e-01	-8.663193e-02	-7.004489e-02	-8.864060e-02	-7.987138e-02	-4.425017e-02	-8.865253e-01	-6.801947e-01	-8.810308e-01	7.901768e-02	2.283403e-02	7.229335e-02	1.420338e-02	8.728725e-04	8.059363e-04	-3.521042e-03	-3.383344e-03	8.387369e-04	1.000000e+00	
4.900000e+00	2.769684e+02	2.677711e+02	9.197242e+00	1.000000e+00	1.235889e+00	-8.313507e-01	-6.938949e-01	-9.295202e-01	-8.596144e-02	-1.186580e-01	8.146290e-02	-3.024776e-02	-1.176233e-02	-3.599486e-02	-6.260025e-02	-1.016350e-01	-2.406029e-03	-8.151364e-01	-6.832897e-01	-8.942827e-01	-1.933161e-02	-1.376315e-02	8.293286e-02	1.403337e-02	1.157067e-03	7.572783e-04	-4.029585e-03	-3.259934e-03	9.360673e-04	1.000000e+00	
5.000000e+00	2.753949e+02	2.677711e+02	7.623802e+00	1.000000e+00	1.260320e+00	-8.964198e-01	-6.905068e-01	-8.899302e-01	-4.217228e-02	7.684846e-02	7.643630e-02	3.098662e-02	2.511359e-02	-7.620217e-02	2.691574e-02	5.648873e-02	-3.480502e-03	-9.389550e-01	-7.165104e-01	-8.140974e-01	-6.588200e-02	2.242523e-02	7.934340e-02	1.154863e-02	8.900249e-04	3.694216e-04	-3.206021e-03	-2.065506e-03	5.734060e-04	1.000000e+00	
5.100000e+00	2.745787e+02	2.677711e+02	6.807570e+00	1.000000e+00	1.284578e+00	-6.359114e-01	-6.419766e-01	-9.009103e-01	1.391839e-02	-1.944408e-01	-8.767770e-02	1.700673e-01	5.161650e-02	-1.303575e-01	-4.515367e-02	-2.273259e-01	-1.227053e-01	-8.168102e-01	-6.941978e-01	-7.705943e-01	6.163135e-02	3.355520e-02	3.486923e-02	1.083152e-02	6.047174e-04	4.146063e-05	-2.559298e-03	-6.701355e-04	1.583413e-04	1.000000e+00	
5.200000e+00	2.752387e+02	2.677711e+02	7.467585e+00	1.000000e+00	1.308830e+00	-8.975353e-01	-6.436225e-01	-7.325852e-01	7.822503e-02	4.713164e-02	1.399607e-01	-1.230934e-01	8.534294e-02	7.401071e-02	7.521929e-02	-6.139047e-04	4.397026e-02	-7.867297e-01	-7.295958e-01	-8.066001e-01	5.788945e-03	4.751784e-02	9.604201e-02	1.228776e-02	6.304030e-04	4.219825e-06	-2.783207e-03	2.277108e-04	-5.157703e-05	1.000000e+00	
5.300000e+00	2.756869e+02	2.677711e+02	7.915758e+00	1.000000e+00	1.333169e+00	-8.243599e-01	-7.728729e-01	-8.156576e-01	1.215432e-01	7.863761e-02	8.378405e-05	2.956889e-02	-1.579852e-02	-3.127437e-02	1.245026e-01	-1.430025e-02	-4.480384e-02	-8.671869e-01	-7.576279e-01	-7.843980e-01	-2.504101e-04	9.249551e-02	4.497801e-02	1.325808e-02	5.535224e-04	1.475919e-05	-2.708993e-03	4.423556e-04	-9.038551e-05	1.000000e+00	
5.400000e+00	2.759507e+02	2.677711e+02	8.179567e+00	1.000000e+00	1.357605e+00	-9.679174e-01	-9.029523e-01	-8.984321e-01	-1.510487e-02	1.699276e-01	1.183160e-01	-7.359213e-02	-7.445444e-02	2.496637e-02	-3.328718e-02	6.026404e-02	1.843043e-02	-9.070481e-01	-8.296216e-01	-9.234528e-01	2.196354e-02	1.104949e-01	9.963848e-02	1.272282e-02	1.123787e-03	5.432716e-05	-3.781235e-03	-8.313810e-04	2.470874e-04	1.000000e+00	
5.500000e+00	2.751701e+02	2.677711e+02	7.398956e+00	1.000000e+00	1.381952e+00	-8.056696e-01	-6.283387e-01	-8.115004e-01	3.800278e-02	3.259082e-02	4.903288e-02	4.529558e-02	9.591995e-02	9.602212e-02	7.032867e-02	2.584821e-02	6.388816e-03	-8.619998e-01	-7.254331e-01	-9.075953e-01	-2.872585e-02	7.638492e-03	4.235178e-02	1.103456e-02	1.174517e-03	7.273441e-05	-3.600040e-03	-8.958753e-04	2.922804e-04	1.000000e+00	
5.600000e+00	2.754031e+02	2.677711e+02	7.631974e+00	1.000000e+00	1.406409e+00	-8.216117e-01	-7.707574e-01	-1.065873e+00	1.081050e-01	-9.207622e-02	-1.244741e-02	2.310077e-02	6.230782e-02	-8.333796e-02	1.212811e-01	-4.027611e-02	-1.050202e-01	-8.566241e-01	-8.336853e-01	-9.825370e-01	-1.045841e-02	-5.194148e-02	9.260508e-02	1.191169e-02	6.200455e-04	1.677614e-06	-2.717681e-03	1.413620e-04	-3.225208e-05	1.000000e+00	
5.700000e+00	2.748508e+02	2.677711e+02	7.079698e+00	1.000000e+00	1.430775e+00	-9.383996e-01	-6.654376e-01	-1.026906e+00	1.344734e-02	-1.835245e-01	-1.328849e-02	5.540934e-03	7.386816e-02	-4.490633e-02	-1.080495e-02	-8.610221e-02	-8.477461e-02	-9.542503e-01	-7.401195e-01	-9.821433e-01	2.714883e-02	-9.863790e-02	7.182764e-02	1.030979e-02	8.137826e-04	1.433290e-04	-2.896538e-03	1.215604e-03	-3.415240e-04	1.000000e+00	
5.800000e+00	2.749316e+02	2.677711e+02	7.160477e+00	1.000000e+00	1.455223e+00	-7.093934e-01	-6.629713e-01	-7.135090e-01	1.709075e-01	9.220817e-02	1.171519e-01	1.076228e-01	3.863311e-02	8.889676e-02	1.413322e-01	6.311399e-02	8.051919e-02	-8.280847e-01	-7.023940e-01	-8.026778e-01	3.253168e-02	2.735902e-02	3.709618e-02	1.106842e-02	7.896331e-04	2.720147e-04	-2.956348e-03	1.735158e-03	-4.634564e-04	1.000000e+00	
5.900000e+00	2.753076e+02	2.677711e+02	7.536450e+00	1.000000e+00	1.479582e+00	-8.554403e-01	-8.437189e-01	-7.213053e-01	-1.281988e-02	4.752984e-02	1.064617e-01	-6.135163e-02	-5.426894e-02	8.247615e-02	1.041390e-02	3.637782e-02	4.591303e-02	-8.062176e-01	-7.901492e-01	-8.037876e-01	-2.032169e-02	1.087890e-02	6.061427e-02	1.212895e-02	6.991788e-04	6.149782e-06	-2.912096e-03	2.731124e-04	-6.557284e-05	1.000000e+00	
6.000000e+00	2.752424e+02	2.677711e+02	7.471338e+00	1.000000e+00	1.503997e+00	-7.175582e-01	-8.599751e-01	-9.222914e-01	-4.510715e-02	5.287580e-02	5.449227e-03	-2.095549e-02	-1.189284e-01	-1.461978e-02	-1.206381e-01	2.675009e-02	-4.229175e-03	-7.083243e-01	-7.419281e-01	-9.078688e-01	7.874521e-02	2.460562e-02	1.009523e-02	1.172166e-02	8.813765e-04	1.971279e-04	-3.214217e-03	1.520087e-03	-4.168260e-04	1.000000e+00	
6.100000e+00	2.766216e+02	2.677711e+02	8.850520e+00	1.000000e+00	1.528364e+00	-8.211967e-01	-7.511305e-01	-8.343217e-01	1.622951e-01	5.916330e-02	8.807008e-02	-2.561954e-02	-1.626402e-04	1.073909e-01	9.890349e-02	7.806896e-02	1.028675e-01	-8.101642e-01	-7.517342e-01	-9.418464e-01	6.673504e-02	-2.030253e-02	-1.447726e-02	1.458702e-02	7.663572e-04	1.337657e-04	-3.343482e-03	1.396869e-03	-3.201754e-04	1.000000e+00	
6.200000e+00	2.769796e+02	2.677711e+02	9.208449e+00	1.000000e+00	1.552795e+00	-7.355102e-01	-8.249357e-01	-9.756442e-01	1.849939e-01	-8.242353e-02	-4.899194e-02	2.237799e-02	9.995846e-03	-1.730977e-02	7.103038e-02	-3.945585e-02	-8.335734e-02	-7.726216e-01	-8.359217e-01	-9.584445e-01	1.177830e-01	-4.424084e-02	3.469545e-02	1.473337e-02	9.901554e-04	1.100186e-04	-3.819467e-03	1.273163e-03	-3.300538e-04	1.000000e+00	
6.300000e+00	2.772416e+02	2.677711e+02	9.470449e+00	1.000000e+00	1.577360e+00	-6.629489e-01	-7.410975e-01	-9.186561e-01	2.119819e-01	5.874254e-02	1.878616e-01	1.383781e-01	1.210561e-01	5.166530e-02	1.337927e-01	1.469460e-01	4.558819e-02	-8.162737e-01	-8.630639e-01	-9.707357e-01	8.187781e-02	-9.069194e-02	1.428875e-01	1.494671e-02	9.102934e-04	4.143247e-04	-3.688616e-03	2.488532e-03	-6.141311e-04	1.000000e+00	
6.400000e+00	2.776205e+02	2.677711e+02	9.849380e+00	1.000000e+00	1.601792e+00	-8.317579e-01	-7.315246e-01	-8.592506e-01	1.001853e-01	-1.699303e-01	1.059821e-01	2.235717e-03	1.192861e-01	4.640559e-02	-1.607950e-02	-3.109338e-02	6.764424e-02	-8.491693e-01	-8.521830e-01	-9.059834e-01	1.208283e-01	-1.410653e-01	3.900794e-02	1.517570e-02	1.372301e-03	3.272191e-04	-4.563511e-03	2.228403e-03	-6.701069e-04	1.000000e+00	
6.500000e+00	2.774396e+02	2.677711e+02	9.668515e+00	1.000000e+00	1.626203e+00	-8.402547e-01	-7.143441e-01	-7.828839e-01	-1.947061e-02	-1.129633e-01	6.955886e-03	-1.128164e-01	3.265407e-02	2.684877e-02	-2.595925e-02	-1.041854e-02	-9.747199e-03	-7.427585e-01	-7.482170e-01	-8.102892e-01	1.080980e-02	-1.054646e-01	1.752664e-02	1.532017e-02	1.218817e-03	5.564795e-04	-4.321167e-03	2.919822e-03	-8.235572e-04	1.000000e+00	
6.600000e+00	2.793029e+02	2.677711e+02	1.153179e+01	1.000000e+00	1.650595e+00	-8.658014e-01	-6.807540e-01	-7.252595e-01	1.250091e-02	-1.450776e-01	-1.551287e-01	-1.556067e-02	1.633083e-02	-1.641264e-03	1.614623e-02	-6.183484e-02	-9.054579e-02	-8.689831e-01	-6.989016e-01	-7.239689e-01	2.189984e-03	-8.580622e-02	-6.378475e-02	1.874236e-02	1.816783e-03	3.506237e-04	-5.835306e-03	2.563496e-03	-7.981272e-04	1.000000e+00	
6.700000e+00	2.784525e+02	2.677711e+02	1.068142e+01	1.000000e+00	1.675204e+00	-6.863004e-01	-8.315736e-01	-7.538567e-01	-5.002451e-02	-1.627130e-01	-7.931784e-02	7.677487e-02	-3.324613e-02	-8.697837e-02	-1.131999e-01	-4.584372e-02	-4.791336e-02	-7.807493e-01	-7.995093e-01	-6.671004e-01	6.774563e-02	-1.188503e-01	-3.089223e-02	1.767397e-02	1.181786e-03	2.220419e-04	-4.570214e-03	1.981000e-03	-5.122559e-04	1.000000e+00	
6.800000e+00	2.787869e+02	2.677711e+02	1.101581e+01	1.000000e+00	1.699815e+00	-7.721477e-01	-7.688939e-01	-6.568370e-01	1.131008e-01	-9.134699e-02	-9.058657e-02	-1.861783e-02	1.010512e-01	-4.880573e-03	5.707090e-02	2.870016e-02	2.094435e-02	-7.723818e-01	-8.706787e-01	-6.520904e-01	5.974872e-02	-1.216369e-01	-1.112173e-01	1.885194e-02	7.336124e-04	1.340542e-04	-3.718873e-03	1.589711e-03	-3.135982e-04	1.000000e+00	
6.900000e+00	2.789146e+02	2.677711e+02	1.114348e+01	1.000000e+00	1.724334e+00	-8.791220e-01	-9.080805e-01	-7.715193e-01	1.276913e-02	-1.218880e-01	-1.009640e-01	-4.845170e-02	-6.922555e-02	2.774220e-02	-1.026947e-01	-5.809759e-02	-3.388536e-02	-8.504409e-01	-8.389732e-01	-7.992658e-01	1.169926e-01	-6.408369e-02	-6.705597e-02	1.977057e-02	1.182242e-04	4.349928e-06	-1.528842e-03	2.932585e-04	-2.267745e-05	1.000000e+00	
7.000000e+00	2.777717e+02	2.677711e+02	1.000060e+01	1.000000e+00	1.748718e+00	-7.085345e-01	-9.992190e-01	-9.918077e-01	-6.521284e-02	-3.230680e-02	-1.129977e-01	6.402883e-02	-5.250328e-02	-1.410096e-01	-8.193799e-02	-5.343170e-02	-4.683196e-02	-7.897937e-01	-9.468833e-01	-8.508104e-01	1.842465e-02	2.066426e-02	-6.612034e-02	1.723034e-02	1.676273e-04	1.231481e-05	-1.699493e-03	4.606391e-04	-4.543455e-05	1.000000e+00	
7.100000e+00	2.773650e+02	2.677711e+02	9.593903e+00	1.000000e+00	1.773084e+00	-6.348543e-01	-8.104939e-01	-6.201255e-01	-6.322087e-02	1.067603e-01	1.211094e-01	6.768397e-02	6.160943e-02	1.188551e-01	-7.452998e-03	1.111174e-01	9.520894e-02	-7.190873e-01	-8.722051e-01	-7.390050e-01	-5.447000e-02	-3.721223e-03	2.585056e-02	1.654908e-02	1.017868e-04	2.443543e-05	-1.297874e-03	-6.359119e-04	4.987188e-05	1.000000e+00	