8.999000e+01	2.869699e+01	8.248301e+00	2.044869e+01	2.570000e+02	1.166066e+03	-1.968701e-01	1.778532e-02	-1.420613e-01	2.054829e-01	-8.234324e-03	2.401984e-01	-1.969498e-01	1.758129e-02	-1.420840e-01	2.053961e-01	-8.311402e-03	2.401822e-01	-1.587093e-03	-1.650218e-03	-1.568416e-03	-1.496473e-06	4.948265e-05	1.023030e-04	1.666848e-03	1.854249e-03	1.591076e-03	8.837591e-05	2.759494e-05	-8.613209e-05	1.360000e+02	
9.000000e+01	2.808069e+01	7.963113e+00	2.011758e+01	2.510000e+02	1.166173e+03	3.270075e-01	-1.281120e-01	-1.680735e-01	-4.845280e-01	-1.205731e-01	-1.037997e-01	3.270544e-01	-1.282928e-01	-1.681154e-01	-4.845424e-01	-1.206944e-01	-1.038455e-01	-1.553658e-03	-1.708326e-03	-1.591610e-03	-7.974706e-06	2.117674e-05	1.405611e-04	1.506768e-03	1.889079e-03	1.633549e-03	2.234076e-05	1.001195e-04	-9.476484e-05	1.340000e+02	
