0.000000e+00	5.522217e-01	5.522217e-01	0.000000e+00	0.000000e+00	3.857511e-02	
1.000000e+01	2.111046e+02	2.111046e+02	0.000000e+00	2.800000e+01	3.089114e+00	
2.000000e+01	3.298261e+02	3.298261e+02	0.000000e+00	4.500000e+01	6.134938e+00	
3.000000e+01	3.882183e+02	3.882183e+02	0.000000e+00	5.400000e+01	9.186960e+00	
4.000000e+01	5.432490e+02	5.432490e+02	0.000000e+00	7.500000e+01	1.223689e+01	
5.000000e+01	6.009209e+02	6.009209e+02	0.000000e+00	8.500000e+01	1.533173e+01	
6.000000e+01	6.549705e+02	6.549705e+02	0.000000e+00	9.100000e+01	1.839278e+01	
7.000000e+01	6.691453e+02	6.691453e+02	0.000000e+00	9.400000e+01	2.163342e+01	
8.000000e+01	6.971638e+02	6.971638e+02	0.000000e+00	9.600000e+01	2.470388e+01	
9.000000e+01	6.930126e+02	6.930126e+02	0.000000e+00	9.800000e+01	2.776835e+01	
