8.999000e+01	2.829771e+01	7.283114e+00	2.101459e+01	2.550000e+02	1.155699e+03	-3.904290e-01	-8.373384e-02	9.132994e-03	5.649687e-01	1.458660e-01	2.168303e-01	-3.905308e-01	-8.389000e-02	8.751221e-03	5.648368e-01	1.458703e-01	2.168449e-01	-1.440144e-03	-1.381263e-03	-1.792500e-03	-1.250821e-04	-1.709472e-05	1.107164e-04	1.541945e-03	1.537429e-03	2.174273e-03	2.569571e-04	1.280324e-05	-1.253238e-04	1.380000e+02	
9.000000e+01	2.892298e+01	7.238566e+00	2.168442e+01	2.570000e+02	1.155842e+03	1.384751e-01	-1.325679e-01	9.648901e-02	-1.709338e-01	-1.508686e-01	3.196744e-01	1.382756e-01	-1.329218e-01	9.619341e-02	-1.709358e-01	-1.507321e-01	3.197670e-01	-1.421097e-03	-1.379902e-03	-1.771158e-03	-1.271571e-04	-8.057663e-06	9.607104e-05	1.620555e-03	1.733789e-03	2.066760e-03	1.291103e-04	-1.283983e-04	-1.886613e-04	1.410000e+02	