9.000000e+00	2.971431e+01	7.692760e+00	2.202155e+01	2.560000e+02	8.514592e+00	4.741370e-02	-1.212882e-02	1.514278e-02	-8.516948e-03	3.255642e-02	4.513794e-02	4.728984e-02	-1.238221e-02	1.472115e-02	-8.498983e-03	3.248219e-02	4.500181e-02	-1.597659e-03	-1.501996e-03	-1.606849e-03	-1.077828e-04	-1.235611e-04	1.061297e-04	1.721521e-03	1.755391e-03	2.028476e-03	8.981876e-05	1.977883e-04	3.000129e-05	1.410000e+02	
